# vtk DataFile Version 2.0
tracks
ASCII
DATASET POLYDATA
POINTS 1720 float
-1.001 1e-07 0.0011 -1.0008 1e-07 0.0011 -1.0006 1e-07 0.0011 -1.0004 1e-07
0.0011 -1.0002 1e-07 0.0011 -1 1e-07 0.0011 -0.8 1e-07 0.0011
-0.6 1e-07 0.0011 -0.4 1e-07 0.0011 -0.2 1e-07 0.0011 0
1e-07 0.0011 0.2 1e-07 0.0011 0.4 1e-07 0.0011 0.6 1e-07
0.0011 0.8 1e-07 0.0011 1 1e-07 0.0011 1.2 1e-07 0.0011
1.4 1e-07 0.0011 1.6 1e-07 0.0011 1.8 1e-07 0.0011 2
1e-07 0.0011 2.2 1e-07 0.0011 2.4 1e-07 0.0011 2.6 1e-07
0.0011 2.8 1e-07 0.0011 3 1e-07 0.0011 3.2 1e-07 0.0011
3.4 1e-07 0.0011 3.6 1e-07 0.0011 3.8 1e-07 0.0011 4
1e-07 0.0011 4.2 1e-07 0.0011 4.4 1e-07 0.0011 4.6 1e-07
0.0011 4.8 1e-07 0.0011 5 1e-07 0.0011 5.2 1e-07 0.0011
5.4 1e-07 0.0011 5.6 1e-07 0.0011 5.8 1e-07 0.0011 6
1e-07 0.0011 6.2 1e-07 0.0011 6.4 1e-07 0.0011 6.6 1e-07
0.0011 6.8 1e-07 0.0011 7 1e-07 0.0011 7.2 1e-07 0.0011
7.4 1e-07 0.0011 7.6 1e-07 0.0011 7.8 1e-07 0.0011 8
1e-07 0.0011 8.2 1e-07 0.0011 8.4 1e-07 0.0011 8.6 1e-07
0.0011 8.8 1e-07 0.0011 9 1e-07 0.0011 9.2 1e-07 0.0011
9.4 1e-07 0.0011 9.6 1e-07 0.0011 9.8 1e-07 0.0011 10
1e-07 0.0011 10.2 1e-07 0.0011 10.4 1e-07 0.0011 10.6 1e-07
0.0011 10.8 1e-07 0.0011 11 1e-07 0.0011 11.2 1e-07 0.0011
11.4 1e-07 0.0011 11.6 1e-07 0.0011 11.8 1e-07 0.0011 12
1e-07 0.0011 12.2 1e-07 0.0011 12.4 1e-07 0.0011 12.6 1e-07
0.0011 12.8 1e-07 0.0011 13 1e-07 0.0011 13.2 1e-07 0.0011
13.4 1e-07 0.0011 13.6 1e-07 0.0011 13.8 1e-07 0.0011 14
1e-07 0.0011 14.2 1e-07 0.0011 14.4 1e-07 0.0011 14.6 1e-07
0.0011 14.8 1e-07 0.0011 15 1e-07 0.0011 -1.001 1e-07 0.0537316
-1.0008 1e-07 0.0537316 -1.0006 1e-07 0.0537316 -1.0004 1e-07 0.0537316 -1.0002
1e-07 0.0537316 -1 1e-07 0.0537316 -0.8 1e-07 0.0537316 -0.6 1e-07
0.0537316 -0.4 1e-07 0.0537316 -0.2 1e-07 0.0537316 0 1e-07 0.0537316
0.2 1e-07 0.0537316 0.4 1e-07 0.0537316 0.6 1e-07 0.0537316 0.8
1e-07 0.0537316 1 1e-07 0.0537316 1.2 1e-07 0.0537316 1.4 1e-07
0.0537316 1.6 1e-07 0.0537316 1.8 1e-07 0.0537316 2 1e-07 0.0537316
2.2 1e-07 0.0537316 2.4 1e-07 0.0537316 2.6 1e-07 0.0537316 2.8
1e-07 0.0537316 3 1e-07 0.0537316 3.2 1e-07 0.0537316 3.4 1e-07
0.0537316 3.6 1e-07 0.0537316 3.8 1e-07 0.0537316 4 1e-07 0.0537316
4.2 1e-07 0.0537316 4.4 1e-07 0.0537316 4.6 1e-07 0.0537316 4.8
1e-07 0.0537316 5 1e-07 0.0537316 5.2 1e-07 0.0537316 5.4 1e-07
0.0537316 5.6 1e-07 0.0537316 5.8 1e-07 0.0537316 6 1e-07 0.0537316
6.2 1e-07 0.0537316 6.4 1e-07 0.0537316 6.6 1e-07 0.0537316 6.8
1e-07 0.0537316 7 1e-07 0.0537316 7.2 1e-07 0.0537316 7.4 1e-07
0.0537316 7.6 1e-07 0.0537316 7.8 1e-07 0.0537316 8 1e-07 0.0537316
8.2 1e-07 0.0537316 8.4 1e-07 0.0537316 8.6 1e-07 0.0537316 8.8
1e-07 0.0537316 9 1e-07 0.0537316 9.2 1e-07 0.0537316 9.4 1e-07
0.0537316 9.6 1e-07 0.0537316 9.8 1e-07 0.0537316 10 1e-07 0.0537316
10.2 1e-07 0.0537316 10.4 1e-07 0.0537316 10.6 1e-07 0.0537316 10.8
1e-07 0.0537316 11 1e-07 0.0537316 11.2 1e-07 0.0537316 11.4 1e-07
0.0537316 11.6 1e-07 0.0537316 11.8 1e-07 0.0537316 12 1e-07 0.0537316
12.2 1e-07 0.0537316 12.4 1e-07 0.0537316 12.6 1e-07 0.0537316 12.8
1e-07 0.0537316 13 1e-07 0.0537316 13.2 1e-07 0.0537316 13.4 1e-07
0.0537316 13.6 1e-07 0.0537316 13.8 1e-07 0.0537316 14 1e-07 0.0537316
14.2 1e-07 0.0537316 14.4 1e-07 0.0537316 14.6 1e-07 0.0537316 14.8
1e-07 0.0537316 15 1e-07 0.0537316 -1.001 1e-07 0.106363 -1.0008 1e-07
0.106363 -1.0006 1e-07 0.106363 -1.0004 1e-07 0.106363 -1.0002 1e-07 0.106363
-1 1e-07 0.106363 -0.8 1e-07 0.106363 -0.6 1e-07 0.106363 -0.4
1e-07 0.106363 -0.2 1e-07 0.106363 0 1e-07 0.106363 0.2 1e-07
0.106363 0.4 1e-07 0.106363 0.6 1e-07 0.106363 0.8 1e-07 0.106363
1 1e-07 0.106363 1.2 1e-07 0.106363 1.4 1e-07 0.106363 1.6
1e-07 0.106363 1.8 1e-07 0.106363 2 1e-07 0.106363 2.2 1e-07
0.106363 2.4 1e-07 0.106363 2.6 1e-07 0.106363 2.8 1e-07 0.106363
3 1e-07 0.106363 3.2 1e-07 0.106363 3.4 1e-07 0.106363 3.6
1e-07 0.106363 3.8 1e-07 0.106363 4 1e-07 0.106363 4.2 1e-07
0.106363 4.4 1e-07 0.106363 4.6 1e-07 0.106363 4.8 1e-07 0.106363
5 1e-07 0.106363 5.2 1e-07 0.106363 5.4 1e-07 0.106363 5.6
1e-07 0.106363 5.8 1e-07 0.106363 6 1e-07 0.106363 6.2 1e-07
0.106363 6.4 1e-07 0.106363 6.6 1e-07 0.106363 6.8 1e-07 0.106363
7 1e-07 0.106363 7.2 1e-07 0.106363 7.4 1e-07 0.106363 7.6
1e-07 0.106363 7.8 1e-07 0.106363 8 1e-07 0.106363 8.2 1e-07
0.106363 8.4 1e-07 0.106363 8.6 1e-07 0.106363 8.8 1e-07 0.106363
9 1e-07 0.106363 9.2 1e-07 0.106363 9.4 1e-07 0.106363 9.6
1e-07 0.106363 9.8 1e-07 0.106363 10 1e-07 0.106363 10.2 1e-07
0.106363 10.4 1e-07 0.106363 10.6 1e-07 0.106363 10.8 1e-07 0.106363
11 1e-07 0.106363 11.2 1e-07 0.106363 11.4 1e-07 0.106363 11.6
1e-07 0.106363 11.8 1e-07 0.106363 12 1e-07 0.106363 12.2 1e-07
0.106363 12.4 1e-07 0.106363 12.6 1e-07 0.106363 12.8 1e-07 0.106363
13 1e-07 0.106363 13.2 1e-07 0.106363 13.4 1e-07 0.106363 13.6
1e-07 0.106363 13.8 1e-07 0.106363 14 1e-07 0.106363 14.2 1e-07
0.106363 14.4 1e-07 0.106363 14.6 1e-07 0.106363 14.8 1e-07 0.106363
15 1e-07 0.106363 -1.001 1e-07 0.158995 -1.0008 1e-07 0.158995 -1.0006
1e-07 0.158995 -1.0004 1e-07 0.158995 -1.0002 1e-07 0.158995 -1 1e-07
0.158995 -0.8 1e-07 0.158995 -0.6 1e-07 0.158995 -0.4 1e-07 0.158995
-0.2 1e-07 0.158995 0 1e-07 0.158995 0.2 1e-07 0.158995 0.4
1e-07 0.158995 0.6 1e-07 0.158995 0.8 1e-07 0.158995 1 1e-07
0.158995 1.2 1e-07 0.158995 1.4 1e-07 0.158995 1.6 1e-07 0.158995
1.8 1e-07 0.158995 2 1e-07 0.158995 2.2 1e-07 0.158995 2.4
1e-07 0.158995 2.6 1e-07 0.158995 2.8 1e-07 0.158995 3 1e-07
0.158995 3.2 1e-07 0.158995 3.4 1e-07 0.158995 3.6 1e-07 0.158995
3.8 1e-07 0.158995 4 1e-07 0.158995 4.2 1e-07 0.158995 4.4
1e-07 0.158995 4.6 1e-07 0.158995 4.8 1e-07 0.158995 5 1e-07
0.158995 5.2 1e-07 0.158995 5.4 1e-07 0.158995 5.6 1e-07 0.158995
5.8 1e-07 0.158995 6 1e-07 0.158995 6.2 1e-07 0.158995 6.4
1e-07 0.158995 6.6 1e-07 0.158995 6.8 1e-07 0.158995 7 1e-07
0.158995 7.2 1e-07 0.158995 7.4 1e-07 0.158995 7.6 1e-07 0.158995
7.8 1e-07 0.158995 8 1e-07 0.158995 8.2 1e-07 0.158995 8.4
1e-07 0.158995 8.6 1e-07 0.158995 8.8 1e-07 0.158995 9 1e-07
0.158995 9.2 1e-07 0.158995 9.4 1e-07 0.158995 9.6 1e-07 0.158995
9.8 1e-07 0.158995 10 1e-07 0.158995 10.2 1e-07 0.158995 10.4
1e-07 0.158995 10.6 1e-07 0.158995 10.8 1e-07 0.158995 11 1e-07
0.158995 11.2 1e-07 0.158995 11.4 1e-07 0.158995 11.6 1e-07 0.158995
11.8 1e-07 0.158995 12 1e-07 0.158995 12.2 1e-07 0.158995 12.4
1e-07 0.158995 12.6 1e-07 0.158995 12.8 1e-07 0.158995 13 1e-07
0.158995 13.2 1e-07 0.158995 13.4 1e-07 0.158995 13.6 1e-07 0.158995
13.8 1e-07 0.158995 14 1e-07 0.158995 14.2 1e-07 0.158995 14.4
1e-07 0.158995 14.6 1e-07 0.158995 14.8 1e-07 0.158995 15 1e-07
0.158995 -1.001 1e-07 0.211626 -1.0008 1e-07 0.211626 -1.0006 1e-07 0.211626
-1.0004 1e-07 0.211626 -1.0002 1e-07 0.211626 -1 1e-07 0.211626 -0.8
1e-07 0.211626 -0.6 1e-07 0.211626 -0.4 1e-07 0.211626 -0.2 1e-07
0.211626 0 1e-07 0.211626 0.2 1e-07 0.211626 0.4 1e-07 0.211626
0.6 1e-07 0.211626 0.8 1e-07 0.211626 1 1e-07 0.211626 1.2
1e-07 0.211626 1.4 1e-07 0.211626 1.6 1e-07 0.211626 1.8 1e-07
0.211626 2 1e-07 0.211626 2.2 1e-07 0.211626 2.4 1e-07 0.211626
2.6 1e-07 0.211626 2.8 1e-07 0.211626 3 1e-07 0.211626 3.2
1e-07 0.211626 3.4 1e-07 0.211626 3.6 1e-07 0.211626 3.8 1e-07
0.211626 4 1e-07 0.211626 4.2 1e-07 0.211626 4.4 1e-07 0.211626
4.6 1e-07 0.211626 4.8 1e-07 0.211626 5 1e-07 0.211626 5.2
1e-07 0.211626 5.4 1e-07 0.211626 5.6 1e-07 0.211626 5.8 1e-07
0.211626 6 1e-07 0.211626 6.2 1e-07 0.211626 6.4 1e-07 0.211626
6.6 1e-07 0.211626 6.8 1e-07 0.211626 7 1e-07 0.211626 7.2
1e-07 0.211626 7.4 1e-07 0.211626 7.6 1e-07 0.211626 7.8 1e-07
0.211626 8 1e-07 0.211626 8.2 1e-07 0.211626 8.4 1e-07 0.211626
8.6 1e-07 0.211626 8.8 1e-07 0.211626 9 1e-07 0.211626 9.2
1e-07 0.211626 9.4 1e-07 0.211626 9.6 1e-07 0.211626 9.8 1e-07
0.211626 10 1e-07 0.211626 10.2 1e-07 0.211626 10.4 1e-07 0.211626
10.6 1e-07 0.211626 10.8 1e-07 0.211626 11 1e-07 0.211626 11.2
1e-07 0.211626 11.4 1e-07 0.211626 11.6 1e-07 0.211626 11.8 1e-07
0.211626 12 1e-07 0.211626 12.2 1e-07 0.211626 12.4 1e-07 0.211626
12.6 1e-07 0.211626 12.8 1e-07 0.211626 13 1e-07 0.211626 13.2
1e-07 0.211626 13.4 1e-07 0.211626 13.6 1e-07 0.211626 13.8 1e-07
0.211626 14 1e-07 0.211626 14.2 1e-07 0.211626 14.4 1e-07 0.211626
14.6 1e-07 0.211626 14.8 1e-07 0.211626 15 1e-07 0.211626 -1.001
1e-07 0.264258 -1.0008 1e-07 0.264258 -1.0006 1e-07 0.264258 -1.0004 1e-07
0.264258 -1.0002 1e-07 0.264258 -1 1e-07 0.264258 -0.8 1e-07 0.264258
-0.6 1e-07 0.264258 -0.4 1e-07 0.264258 -0.2 1e-07 0.264258 0
1e-07 0.264258 0.2 1e-07 0.264258 0.4 1e-07 0.264258 0.6 1e-07
0.264258 0.8 1e-07 0.264258 1 1e-07 0.264258 1.2 1e-07 0.264258
1.4 1e-07 0.264258 1.6 1e-07 0.264258 1.8 1e-07 0.264258 2
1e-07 0.264258 2.2 1e-07 0.264258 2.4 1e-07 0.264258 2.6 1e-07
0.264258 2.8 1e-07 0.264258 3 1e-07 0.264258 3.2 1e-07 0.264258
3.4 1e-07 0.264258 3.6 1e-07 0.264258 3.8 1e-07 0.264258 4
1e-07 0.264258 4.2 1e-07 0.264258 4.4 1e-07 0.264258 4.6 1e-07
0.264258 4.8 1e-07 0.264258 5 1e-07 0.264258 5.2 1e-07 0.264258
5.4 1e-07 0.264258 5.6 1e-07 0.264258 5.8 1e-07 0.264258 6
1e-07 0.264258 6.2 1e-07 0.264258 6.4 1e-07 0.264258 6.6 1e-07
0.264258 6.8 1e-07 0.264258 7 1e-07 0.264258 7.2 1e-07 0.264258
7.4 1e-07 0.264258 7.6 1e-07 0.264258 7.8 1e-07 0.264258 8
1e-07 0.264258 8.2 1e-07 0.264258 8.4 1e-07 0.264258 8.6 1e-07
0.264258 8.8 1e-07 0.264258 9 1e-07 0.264258 9.2 1e-07 0.264258
9.4 1e-07 0.264258 9.6 1e-07 0.264258 9.8 1e-07 0.264258 10
1e-07 0.264258 10.2 1e-07 0.264258 10.4 1e-07 0.264258 10.6 1e-07
0.264258 10.8 1e-07 0.264258 11 1e-07 0.264258 11.2 1e-07 0.264258
11.4 1e-07 0.264258 11.6 1e-07 0.264258 11.8 1e-07 0.264258 12
1e-07 0.264258 12.2 1e-07 0.264258 12.4 1e-07 0.264258 12.6 1e-07
0.264258 12.8 1e-07 0.264258 13 1e-07 0.264258 13.2 1e-07 0.264258
13.4 1e-07 0.264258 13.6 1e-07 0.264258 13.8 1e-07 0.264258 14
1e-07 0.264258 14.2 1e-07 0.264258 14.4 1e-07 0.264258 14.6 1e-07
0.264258 14.8 1e-07 0.264258 15 1e-07 0.264258 -1.001 1e-07 0.316889
-1.0008 1e-07 0.316889 -1.0006 1e-07 0.316889 -1.0004 1e-07 0.316889 -1.0002
[...]
POINT_DATA 1720
FIELD attributes 3
age 1 1720 float
0 1e-05 2e-05 3e-05 4e-05 5e-05 0.01005 0.02005 0.03005 0.04005 0.05005
0.06005 0.07005 0.08005 0.09005 0.10005 0.11005 0.12005 0.13005 0.14005 0.15005
0.16005 0.17005 0.18005 0.19005 0.20005 0.21005 0.22005 0.23005 0.24005 0.25005
0.26005 0.27005 0.28005 0.29005 0.30005 0.31005 0.32005 0.33005 0.34005 0.35005
0.36005 0.37005 0.38005 0.39005 0.40005 0.41005 0.42005 0.43005 0.44005 0.45005
0.46005 0.47005 0.48005 0.49005 0.50005 0.51005 0.52005 0.53005 0.54005 0.55005
0.56005 0.57005 0.58005 0.59005 0.60005 0.61005 0.62005 0.63005 0.64005 0.65005
0.66005 0.67005 0.68005 0.69005 0.70005 0.71005 0.72005 0.73005 0.74005 0.75005
0.76005 0.77005 0.78005 0.79005 0.80005 0 1e-05 2e-05 3e-05 4e-05
5e-05 0.01005 0.02005 0.03005 0.04005 0.05005 0.06005 0.07005 0.08005 0.09005
0.10005 0.11005 0.12005 0.13005 0.14005 0.15005 0.16005 0.17005 0.18005 0.19005
0.20005 0.21005 0.22005 0.23005 0.24005 0.25005 0.26005 0.27005 0.28005 0.29005
0.30005 0.31005 0.32005 0.33005 0.34005 0.35005 0.36005 0.37005 0.38005 0.39005
0.40005 0.41005 0.42005 0.43005 0.44005 0.45005 0.46005 0.47005 0.48005 0.49005
0.50005 0.51005 0.52005 0.53005 0.54005 0.55005 0.56005 0.57005 0.58005 0.59005
0.60005 0.61005 0.62005 0.63005 0.64005 0.65005 0.66005 0.67005 0.68005 0.69005
0.70005 0.71005 0.72005 0.73005 0.74005 0.75005 0.76005 0.77005 0.78005 0.79005
0.80005 0 1e-05 2e-05 3e-05 4e-05 5e-05 0.01005 0.02005 0.03005
0.04005 0.05005 0.06005 0.07005 0.08005 0.09005 0.10005 0.11005 0.12005 0.13005
0.14005 0.15005 0.16005 0.17005 0.18005 0.19005 0.20005 0.21005 0.22005 0.23005
0.24005 0.25005 0.26005 0.27005 0.28005 0.29005 0.30005 0.31005 0.32005 0.33005
0.34005 0.35005 0.36005 0.37005 0.38005 0.39005 0.40005 0.41005 0.42005 0.43005
0.44005 0.45005 0.46005 0.47005 0.48005 0.49005 0.50005 0.51005 0.52005 0.53005
0.54005 0.55005 0.56005 0.57005 0.58005 0.59005 0.60005 0.61005 0.62005 0.63005
0.64005 0.65005 0.66005 0.67005 0.68005 0.69005 0.70005 0.71005 0.72005 0.73005
0.74005 0.75005 0.76005 0.77005 0.78005 0.79005 0.80005 0 1e-05 2e-05
3e-05 4e-05 5e-05 0.01005 0.02005 0.03005 0.04005 0.05005 0.06005 0.07005
0.08005 0.09005 0.10005 0.11005 0.12005 0.13005 0.14005 0.15005 0.16005 0.17005
0.18005 0.19005 0.20005 0.21005 0.22005 0.23005 0.24005 0.25005 0.26005 0.27005
0.28005 0.29005 0.30005 0.31005 0.32005 0.33005 0.34005 0.35005 0.36005 0.37005
0.38005 0.39005 0.40005 0.41005 0.42005 0.43005 0.44005 0.45005 0.46005 0.47005
0.48005 0.49005 0.50005 0.51005 0.52005 0.53005 0.54005 0.55005 0.56005 0.57005
0.58005 0.59005 0.60005 0.61005 0.62005 0.63005 0.64005 0.65005 0.66005 0.67005
0.68005 0.69005 0.70005 0.71005 0.72005 0.73005 0.74005 0.75005 0.76005 0.77005
0.78005 0.79005 0.80005 0 1e-05 2e-05 3e-05 4e-05 5e-05 0.01005
0.02005 0.03005 0.04005 0.05005 0.06005 0.07005 0.08005 0.09005 0.10005 0.11005
0.12005 0.13005 0.14005 0.15005 0.16005 0.17005 0.18005 0.19005 0.20005 0.21005
0.22005 0.23005 0.24005 0.25005 0.26005 0.27005 0.28005 0.29005 0.30005 0.31005
0.32005 0.33005 0.34005 0.35005 0.36005 0.37005 0.38005 0.39005 0.40005 0.41005
0.42005 0.43005 0.44005 0.45005 0.46005 0.47005 0.48005 0.49005 0.50005 0.51005
0.52005 0.53005 0.54005 0.55005 0.56005 0.57005 0.58005 0.59005 0.60005 0.61005
0.62005 0.63005 0.64005 0.65005 0.66005 0.67005 0.68005 0.69005 0.70005 0.71005
0.72005 0.73005 0.74005 0.75005 0.76005 0.77005 0.78005 0.79005 0.80005 0
1e-05 2e-05 3e-05 4e-05 5e-05 0.01005 0.02005 0.03005 0.04005 0.05005
0.06005 0.07005 0.08005 0.09005 0.10005 0.11005 0.12005 0.13005 0.14005 0.15005
0.16005 0.17005 0.18005 0.19005 0.20005 0.21005 0.22005 0.23005 0.24005 0.25005
0.26005 0.27005 0.28005 0.29005 0.30005 0.31005 0.32005 0.33005 0.34005 0.35005
0.36005 0.37005 0.38005 0.39005 0.40005 0.41005 0.42005 0.43005 0.44005 0.45005
0.46005 0.47005 0.48005 0.49005 0.50005 0.51005 0.52005 0.53005 0.54005 0.55005
0.56005 0.57005 0.58005 0.59005 0.60005 0.61005 0.62005 0.63005 0.64005 0.65005
0.66005 0.67005 0.68005 0.69005 0.70005 0.71005 0.72005 0.73005 0.74005 0.75005
0.76005 0.77005 0.78005 0.79005 0.80005 0 1e-05 2e-05 3e-05 4e-05
5e-05 0.01005 0.02005 0.03005 0.04005 0.05005 0.06005 0.07005 0.08005 0.09005
0.10005 0.11005 0.12005 0.13005 0.14005 0.15005 0.16005 0.17005 0.18005 0.19005
0.20005 0.21005 0.22005 0.23005 0.24005 0.25005 0.26005 0.27005 0.28005 0.29005
0.30005 0.31005 0.32005 0.33005 0.34005 0.35005 0.36005 0.37005 0.38005 0.39005
0.40005 0.41005 0.42005 0.43005 0.44005 0.45005 0.46005 0.47005 0.48005 0.49005
0.50005 0.51005 0.52005 0.53005 0.54005 0.55005 0.56005 0.57005 0.58005 0.59005
0.60005 0.61005 0.62005 0.63005 0.64005 0.65005 0.66005 0.67005 0.68005 0.69005
0.70005 0.71005 0.72005 0.73005 0.74005 0.75005 0.76005 0.77005 0.78005 0.79005
0.80005 0 1e-05 2e-05 3e-05 4e-05 5e-05 0.01005 0.02005 0.03005
0.04005 0.05005 0.06005 0.07005 0.08005 0.09005 0.10005 0.11005 0.12005 0.13005
0.14005 0.15005 0.16005 0.17005 0.18005 0.19005 0.20005 0.21005 0.22005 0.23005
0.24005 0.25005 0.26005 0.27005 0.28005 0.29005 0.30005 0.31005 0.32005 0.33005
0.34005 0.35005 0.36005 0.37005 0.38005 0.39005 0.40005 0.41005 0.42005 0.43005
0.44005 0.45005 0.46005 0.47005 0.48005 0.49005 0.50005 0.51005 0.52005 0.53005
0.54005 0.55005 0.56005 0.57005 0.58005 0.59005 0.60005 0.61005 0.62005 0.63005
0.64005 0.65005 0.66005 0.67005 0.68005 0.69005 0.70005 0.71005 0.72005 0.73005
0.74005 0.75005 0.76005 0.77005 0.78005 0.79005 0.80005 0 1e-05 2e-05
3e-05 4e-05 5e-05 0.01005 0.02005 0.03005 0.04005 0.05005 0.06005 0.07005
0.08005 0.09005 0.10005 0.11005 0.12005 0.13005 0.14005 0.15005 0.16005 0.17005
0.18005 0.19005 0.20005 0.21005 0.22005 0.23005 0.24005 0.25005 0.26005 0.27005
0.28005 0.29005 0.30005 0.31005 0.32005 0.33005 0.34005 0.35005 0.36005 0.37005
0.38005 0.39005 0.40005 0.41005 0.42005 0.43005 0.44005 0.45005 0.46005 0.47005
0.48005 0.49005 0.50005 0.51005 0.52005 0.53005 0.54005 0.55005 0.56005 0.57005
0.58005 0.59005 0.60005 0.61005 0.62005 0.63005 0.64005 0.65005 0.66005 0.67005
0.68005 0.69005 0.70005 0.71005 0.72005 0.73005 0.74005 0.75005 0.76005 0.77005
0.78005 0.79005 0.80005 0 1e-05 2e-05 3e-05 4e-05 5e-05 0.01005
0.02005 0.03005 0.04005 0.05005 0.06005 0.07005 0.08005 0.09005 0.10005 0.11005
0.12005 0.13005 0.14005 0.15005 0.16005 0.17005 0.18005 0.19005 0.20005 0.21005
0.22005 0.23005 0.24005 0.25005 0.26005 0.27005 0.28005 0.29005 0.30005 0.31005
0.32005 0.33005 0.34005 0.35005 0.36005 0.37005 0.38005 0.39005 0.40005 0.41005
0.42005 0.43005 0.44005 0.45005 0.46005 0.47005 0.48005 0.49005 0.50005 0.51005
0.52005 0.53005 0.54005 0.55005 0.56005 0.57005 0.58005 0.59005 0.60005 0.61005
0.62005 0.63005 0.64005 0.65005 0.66005 0.67005 0.68005 0.69005 0.70005 0.71005
0.72005 0.73005 0.74005 0.75005 0.76005 0.77005 0.78005 0.79005 0.80005 0
1e-05 2e-05 3e-05 4e-05 5e-05 0.01005 0.02005 0.03005 0.04005 0.05005
0.06005 0.07005 0.08005 0.09005 0.10005 0.11005 0.12005 0.13005 0.14005 0.15005
0.16005 0.17005 0.18005 0.19005 0.20005 0.21005 0.22005 0.23005 0.24005 0.25005
0.26005 0.27005 0.28005 0.29005 0.30005 0.31005 0.32005 0.33005 0.34005 0.35005
0.36005 0.37005 0.38005 0.39005 0.40005 0.41005 0.42005 0.43005 0.44005 0.45005
0.46005 0.47005 0.48005 0.49005 0.50005 0.51005 0.52005 0.53005 0.54005 0.55005
0.56005 0.57005 0.58005 0.59005 0.60005 0.61005 0.62005 0.63005 0.64005 0.65005
0.66005 0.67005 0.68005 0.69005 0.70005 0.71005 0.72005 0.73005 0.74005 0.75005
0.76005 0.77005 0.78005 0.79005 0.80005 0 1e-05 2e-05 3e-05 4e-05
5e-05 0.01005 0.02005 0.03005 0.04005 0.05005 0.06005 0.07005 0.08005 0.09005
0.10005 0.11005 0.12005 0.13005 0.14005 0.15005 0.16005 0.17005 0.18005 0.19005
0.20005 0.21005 0.22005 0.23005 0.24005 0.25005 0.26005 0.27005 0.28005 0.29005
0.30005 0.31005 0.32005 0.33005 0.34005 0.35005 0.36005 0.37005 0.38005 0.39005
0.40005 0.41005 0.42005 0.43005 0.44005 0.45005 0.46005 0.47005 0.48005 0.49005
0.50005 0.51005 0.52005 0.53005 0.54005 0.55005 0.56005 0.57005 0.58005 0.59005
0.60005 0.61005 0.62005 0.63005 0.64005 0.65005 0.66005 0.67005 0.68005 0.69005
0.70005 0.71005 0.72005 0.73005 0.74005 0.75005 0.76005 0.77005 0.78005 0.79005
0.80005 0 1e-05 2e-05 3e-05 4e-05 5e-05 0.01005 0.02005 0.03005
0.04005 0.05005 0.06005 0.07005 0.08005 0.09005 0.10005 0.11005 0.12005 0.13005
0.14005 0.15005 0.16005 0.17005 0.18005 0.19005 0.20005 0.21005 0.22005 0.23005
0.24005 0.25005 0.26005 0.27005 0.28005 0.29005 0.30005 0.31005 0.32005 0.33005
0.34005 0.35005 0.36005 0.37005 0.38005 0.39005 0.40005 0.41005 0.42005 0.43005
0.44005 0.45005 0.46005 0.47005 0.48005 0.49005 0.50005 0.51005 0.52005 0.53005
0.54005 0.55005 0.56005 0.57005 0.58005 0.59005 0.60005 0.61005 0.62005 0.63005
0.64005 0.65005 0.66005 0.67005 0.68005 0.69005 0.70005 0.71005 0.72005 0.73005
0.74005 0.75005 0.76005 0.77005 0.78005 0.79005 0.80005 0 1e-05 2e-05
3e-05 4e-05 5e-05 0.01005 0.02005 0.03005 0.04005 0.05005 0.06005 0.07005
0.08005 0.09005 0.10005 0.11005 0.12005 0.13005 0.14005 0.15005 0.16005 0.17005
0.18005 0.19005 0.20005 0.21005 0.22005 0.23005 0.24005 0.25005 0.26005 0.27005
0.28005 0.29005 0.30005 0.31005 0.32005 0.33005 0.34005 0.35005 0.36005 0.37005
0.38005 0.39005 0.40005 0.41005 0.42005 0.43005 0.44005 0.45005 0.46005 0.47005
0.48005 0.49005 0.50005 0.51005 0.52005 0.53005 0.54005 0.55005 0.56005 0.57005
0.58005 0.59005 0.60005 0.61005 0.62005 0.63005 0.64005 0.65005 0.66005 0.67005
0.68005 0.69005 0.70005 0.71005 0.72005 0.73005 0.74005 0.75005 0.76005 0.77005
0.78005 0.79005 0.80005 0 1e-05 2e-05 3e-05 4e-05 5e-05 0.01005
0.02005 0.03005 0.04005 0.05005 0.06005 0.07005 0.08005 0.09005 0.10005 0.11005
0.12005 0.13005 0.14005 0.15005 0.16005 0.17005 0.18005 0.19005 0.20005 0.21005
0.22005 0.23005 0.24005 0.25005 0.26005 0.27005 0.28005 0.29005 0.30005 0.31005
0.32005 0.33005 0.34005 0.35005 0.36005 0.37005 0.38005 0.39005 0.40005 0.41005
0.42005 0.43005 0.44005 0.45005 0.46005 0.47005 0.48005 0.49005 0.50005 0.51005
0.52005 0.53005 0.54005 0.55005 0.56005 0.57005 0.58005 0.59005 0.60005 0.61005
0.62005 0.63005 0.64005 0.65005 0.66005 0.67005 0.68005 0.69005 0.70005 0.71005
0.72005 0.73005 0.74005 0.75005 0.76005 0.77005 0.78005 0.79005 0.80005 0
1e-05 2e-05 3e-05 4e-05 5e-05 0.01005 0.02005 0.03005 0.04005 0.05005
0.06005 0.07005 0.08005 0.09005 0.10005 0.11005 0.12005 0.13005 0.14005 0.15005
0.16005 0.17005 0.18005 0.19005 0.20005 0.21005 0.22005 0.23005 0.24005 0.25005
0.26005 0.27005 0.28005 0.29005 0.30005 0.31005 0.32005 0.33005 0.34005 0.35005
0.36005 0.37005 0.38005 0.39005 0.40005 0.41005 0.42005 0.43005 0.44005 0.45005
0.46005 0.47005 0.48005 0.49005 0.50005 0.51005 0.52005 0.53005 0.54005 0.55005
0.56005 0.57005 0.58005 0.59005 0.60005 0.61005 0.62005 0.63005 0.64005 0.65005
0.66005 0.67005 0.68005 0.69005 0.70005 0.71005 0.72005 0.73005 0.74005 0.75005
0.76005 0.77005 0.78005 0.79005 0.80005 0 1e-05 2e-05 3e-05 4e-05
5e-05 0.01005 0.02005 0.03005 0.04005 0.05005 0.06005 0.07005 0.08005 0.09005
0.10005 0.11005 0.12005 0.13005 0.14005 0.15005 0.16005 0.17005 0.18005 0.19005
0.20005 0.21005 0.22005 0.23005 0.24005 0.25005 0.26005 0.27005 0.28005 0.29005
0.30005 0.31005 0.32005 0.33005 0.34005 0.35005 0.36005 0.37005 0.38005 0.39005
0.40005 0.41005 0.42005 0.43005 0.44005 0.45005 0.46005 0.47005 0.48005 0.49005
0.50005 0.51005 0.52005 0.53005 0.54005 0.55005 0.56005 0.57005 0.58005 0.59005
0.60005 0.61005 0.62005 0.63005 0.64005 0.65005 0.66005 0.67005 0.68005 0.69005
0.70005 0.71005 0.72005 0.73005 0.74005 0.75005 0.76005 0.77005 0.78005 0.79005
0.80005 0 1e-05 2e-05 3e-05 4e-05 5e-05 0.01005 0.02005 0.03005
0.04005 0.05005 0.06005 0.07005 0.08005 0.09005 0.10005 0.11005 0.12005 0.13005
0.14005 0.15005 0.16005 0.17005 0.18005 0.19005 0.20005 0.21005 0.22005 0.23005
0.24005 0.25005 0.26005 0.27005 0.28005 0.29005 0.30005 0.31005 0.32005 0.33005
0.34005 0.35005 0.36005 0.37005 0.38005 0.39005 0.40005 0.41005 0.42005 0.43005
0.44005 0.45005 0.46005 0.47005 0.48005 0.49005 0.50005 0.51005 0.52005 0.53005
0.54005 0.55005 0.56005 0.57005 0.58005 0.59005 0.60005 0.61005 0.62005 0.63005
0.64005 0.65005 0.66005 0.67005 0.68005 0.69005 0.70005 0.71005 0.72005 0.73005
0.74005 0.75005 0.76005 0.77005 0.78005 0.79005 0.80005 0 1e-05 2e-05
3e-05 4e-05 5e-05 0.01005 0.02005 0.03005 0.04005 0.05005 0.06005 0.07005
0.08005 0.09005 0.10005 0.11005 0.12005 0.13005 0.14005 0.15005 0.16005 0.17005
0.18005 0.19005 0.20005 0.21005 0.22005 0.23005 0.24005 0.25005 0.26005 0.27005
0.28005 0.29005 0.30005 0.31005 0.32005 0.33005 0.34005 0.35005 0.36005 0.37005
0.38005 0.39005 0.40005 0.41005 0.42005 0.43005 0.44005 0.45005 0.46005 0.47005
0.48005 0.49005 0.50005 0.51005 0.52005 0.53005 0.54005 0.55005 0.56005 0.57005
0.58005 0.59005 0.60005 0.61005 0.62005 0.63005 0.64005 0.65005 0.66005 0.67005
0.68005 0.69005 0.70005 0.71005 0.72005 0.73005 0.74005 0.75005 0.76005 0.77005
0.78005 0.79005 0.80005 0 1e-05 2e-05 3e-05 4e-05 5e-05 0.01005
0.02005 0.03005 0.04005 0.05005 0.06005 0.07005 0.08005 0.09005 0.10005 0.11005
0.12005 0.13005 0.14005 0.15005 0.16005 0.17005 0.18005 0.19005 0.20005 0.21005
0.22005 0.23005 0.24005 0.25005 0.26005 0.27005 0.28005 0.29005 0.30005 0.31005
0.32005 0.33005 0.34005 0.35005 0.36005 0.37005 0.38005 0.39005 0.40005 0.41005
0.42005 0.43005 0.44005 0.45005 0.46005 0.47005 0.48005 0.49005 0.50005 0.51005
0.52005 0.53005 0.54005 0.55005 0.56005 0.57005 0.58005 0.59005 0.60005 0.61005
0.62005 0.63005 0.64005 0.65005 0.66005 0.67005 0.68005 0.69005 0.70005 0.71005
0.72005 0.73005 0.74005 0.75005 0.76005 0.77005 0.78005 0.79005 0.80005 
p 1 1720 float
4.24013e-14 4.23984e-14 4.23955e-14 4.23926e-14 4.23897e-14 4.23868e-14 3.76388e-14 3.28691e-14 2.80995e-14 2.33299e-14 1.85602e-14
1.30311e-14 7.51394e-15 1.99675e-15 -3.52044e-15 -9.03762e-15 -1.27967e-14 -1.65324e-14 -2.02682e-14 -2.40039e-14 -2.77396e-14
-3.43402e-14 -4.09668e-14 -4.75934e-14 -5.42201e-14 -6.08467e-14 -5.76989e-14 -5.45676e-14 -5.14363e-14 -4.83051e-14 -4.51738e-14
-3.59764e-14 -2.67597e-14 -1.7543e-14 -8.32635e-15 8.90311e-16 6.2001e-15 1.15279e-14 1.68557e-14 2.21835e-14 2.75112e-14
2.23929e-14 1.72636e-14 1.21344e-14 7.00513e-15 1.87588e-15 -3.20445e-15 -8.29961e-15 -1.33948e-14 -1.84899e-14 -2.35851e-14
-1.88429e-14 -1.40954e-14 -9.34786e-15 -4.60035e-15 1.47157e-16 -2.7638e-15 -5.67593e-15 -8.58806e-15 -1.15002e-14 -1.44123e-14
-2.24038e-14 -3.03965e-14 -3.83891e-14 -4.63818e-14 -5.43745e-14 -5.68506e-14 -5.93232e-14 -6.17959e-14 -6.42686e-14 -6.67413e-14
-5.89701e-14 -5.11909e-14 -4.34118e-14 -3.56326e-14 -2.78534e-14 -2.04378e-14 -1.3022e-14 -5.60618e-15 1.80965e-15 9.22547e-15
7.85787e-15 6.48598e-15 5.1141e-15 3.74221e-15 2.37033e-15 4.19435e-14 4.19406e-14 4.19377e-14 4.19348e-14 4.19319e-14
4.1929e-14 3.82133e-14 3.34436e-14 2.8674e-14 2.39044e-14 1.91347e-14 1.30358e-14 7.51865e-15 2.00146e-15 -3.51572e-15
-9.0329e-15 -1.39111e-14 -1.76469e-14 -2.13826e-14 -2.51183e-14 -2.8854e-14 -3.42086e-14 -4.08353e-14 -4.74619e-14 -5.40885e-14
-6.07152e-14 -5.67754e-14 -5.36441e-14 -5.05128e-14 -4.73816e-14 -4.42503e-14 -3.59734e-14 -2.67568e-14 -1.75401e-14 -8.32343e-15
8.93236e-16 5.34219e-15 1.067e-14 1.59978e-14 2.13255e-14 2.66533e-14 2.20553e-14 1.69261e-14 1.17968e-14 6.66759e-15
1.53833e-15 -2.83175e-15 -7.92691e-15 -1.30221e-14 -1.81172e-14 -2.32124e-14 -1.87236e-14 -1.39761e-14 -9.22856e-15 -4.48105e-15
2.66459e-16 -2.5884e-15 -5.50053e-15 -8.41267e-15 -1.13248e-14 -1.42369e-14 -2.21729e-14 -3.01655e-14 -3.81582e-14 -4.61509e-14
-5.41435e-14 -5.67832e-14 -5.92558e-14 -6.17285e-14 -6.42012e-14 -6.66739e-14 -5.92869e-14 -5.15077e-14 -4.37285e-14 -3.59494e-14
-2.81702e-14 -2.07677e-14 -1.33519e-14 -5.93606e-15 1.47977e-15 8.89559e-15 7.73298e-15 6.36109e-15 4.9892e-15 3.61732e-15
2.24543e-15 4.14857e-14 4.14828e-14 4.14799e-14 4.1477e-14 4.14741e-14 4.14712e-14 3.87877e-14 3.40181e-14 2.92485e-14
2.44788e-14 1.97092e-14 1.30406e-14 7.52337e-15 2.00618e-15 -3.51101e-15 -9.02819e-15 -1.50256e-14 -1.87613e-14 -2.2497e-14
-2.62327e-14 -2.99684e-14 -3.40771e-14 -4.07037e-14 -4.73304e-14 -5.3957e-14 -6.05836e-14 -5.58519e-14 -5.27206e-14 -4.95894e-14
-4.64581e-14 -4.33268e-14 -3.59705e-14 -2.67538e-14 -1.75372e-14 -8.3205e-15 8.96161e-16 4.48428e-15 9.81206e-15 1.51398e-14
2.04676e-14 2.57954e-14 2.17178e-14 1.65885e-14 1.14593e-14 6.33005e-15 1.20079e-15 -2.45905e-15 -7.55421e-15 -1.26494e-14
-1.77445e-14 -2.28397e-14 -1.86043e-14 -1.38568e-14 -9.10926e-15 -4.36175e-15 3.85761e-16 -2.413e-15 -5.32514e-15 -8.23727e-15
-1.11494e-14 -1.40615e-14 -2.19419e-14 -2.99346e-14 -3.79273e-14 -4.59199e-14 -5.39126e-14 -5.67158e-14 -5.91884e-14 -6.16611e-14
-6.41338e-14 -6.66065e-14 -5.96037e-14 -5.18245e-14 -4.40453e-14 -3.62661e-14 -2.84869e-14 -2.10976e-14 -1.36818e-14 -6.26594e-15
1.14989e-15 8.56571e-15 7.60808e-15 6.2362e-15 4.86431e-15 3.49243e-15 2.12054e-15 4.10279e-14 4.1025e-14 4.10221e-14
4.10192e-14 4.10163e-14 4.10134e-14 3.93622e-14 3.45926e-14 2.9823e-14 2.50533e-14 2.02837e-14 1.30453e-14 7.52808e-15
2.01089e-15 -3.50629e-15 -9.02347e-15 -1.614e-14 -1.98757e-14 -2.36114e-14 -2.73471e-14 -3.10828e-14 -3.39456e-14 -4.05722e-14
-4.71988e-14 -5.38254e-14 -6.04521e-14 -5.49284e-14 -5.17971e-14 -4.86659e-14 -4.55346e-14 -4.24033e-14 -3.59676e-14 -2.67509e-14
-1.75342e-14 -8.31758e-15 8.99087e-16 3.62637e-15 8.95415e-15 1.42819e-14 1.96097e-14 2.49375e-14 2.13802e-14 1.6251e-14
1.11218e-14 5.9925e-15 8.6325e-16 -2.08635e-15 -7.18151e-15 -1.22767e-14 -1.73718e-14 -2.2467e-14 -1.8485e-14 -1.37375e-14
-8.98996e-15 -4.24245e-15 5.05063e-16 -2.23761e-15 -5.14974e-15 -8.06187e-15 -1.0974e-14 -1.38861e-14 -2.1711e-14 -2.97036e-14
-3.76963e-14 -4.5689e-14 -5.36816e-14 -5.66484e-14 -5.9121e-14 -6.15937e-14 -6.40664e-14 -6.65391e-14 -5.99205e-14 -5.21413e-14
-4.43621e-14 -3.65829e-14 -2.88037e-14 -2.14275e-14 -1.40116e-14 -6.59582e-15 8.20012e-16 8.23583e-15 7.48319e-15 6.11131e-15
4.73942e-15 3.36754e-15 1.99565e-15 4.057e-14 4.05671e-14 4.05642e-14 4.05613e-14 4.05584e-14 4.05555e-14 3.97087e-14
3.51671e-14 3.03975e-14 2.56278e-14 2.08582e-14 1.31758e-14 7.53279e-15 2.01561e-15 -3.50158e-15 -9.01876e-15 -1.70072e-14
-2.09901e-14 -2.47258e-14 -2.84616e-14 -3.21973e-14 -3.40893e-14 -4.04406e-14 -4.70673e-14 -5.36939e-14 -6.03205e-14 -5.41799e-14
-5.08736e-14 -4.77424e-14 -4.46111e-14 -4.14798e-14 -3.57613e-14 -2.6748e-14 -1.75313e-14 -8.31465e-15 9.02012e-16 2.95861e-15
8.09624e-15 1.3424e-14 1.87518e-14 2.40796e-14 2.09278e-14 1.59135e-14 1.07842e-14 5.65496e-15 5.25709e-16 -1.87054e-15
-6.80882e-15 -1.1904e-14 -1.69991e-14 -2.20943e-14 -1.83097e-14 -1.36182e-14 -8.87065e-15 -4.12314e-15 6.24365e-16 -2.0746e-15
-4.97434e-15 -7.88648e-15 -1.07986e-14 -1.37107e-14 -2.14923e-14 -2.94727e-14 -3.74654e-14 -4.5458e-14 -5.34507e-14 -5.65448e-14
-5.90536e-14 -6.15263e-14 -6.3999e-14 -6.64717e-14 -6.01524e-14 -5.24581e-14 -4.46789e-14 -3.68997e-14 -2.91205e-14 -2.17545e-14
-1.43415e-14 -6.92569e-15 4.90134e-16 7.90595e-15 7.31302e-15 5.98642e-15 4.61453e-15 3.24264e-15 1.87076e-15 4.01122e-14
4.01093e-14 4.01064e-14 4.01035e-14 4.01006e-14 4.00977e-14 3.92509e-14 3.57416e-14 3.09719e-14 2.62023e-14 2.14327e-14
1.37503e-14 7.53751e-15 2.02032e-15 -3.49687e-15 -9.01405e-15 -1.70025e-14 -2.21046e-14 -2.58403e-14 -2.9576e-14 -3.33117e-14
-3.52037e-14 -4.03091e-14 -4.69357e-14 -5.35624e-14 -6.0189e-14 -5.40483e-14 -4.99502e-14 -4.68189e-14 -4.36876e-14 -4.05563e-14
-3.48378e-14 -2.67451e-14 -1.75284e-14 -8.31173e-15 9.04937e-16 2.96154e-15 7.23832e-15 1.25661e-14 1.78939e-14 2.32217e-14
2.00698e-14 1.55759e-14 1.04467e-14 5.31742e-15 1.88167e-16 -2.20809e-15 -6.43612e-15 -1.15313e-14 -1.66264e-14 -2.17216e-14
-1.7937e-14 -1.34989e-14 -8.75135e-15 -4.00384e-15 7.43666e-16 -1.9553e-15 -4.79895e-15 -7.71108e-15 -1.06232e-14 -1.35354e-14
-2.13169e-14 -2.92418e-14 -3.72344e-14 -4.52271e-14 -5.32197e-14 -5.63139e-14 -5.89862e-14 -6.14589e-14 -6.39316e-14 -6.64043e-14
-6.0085e-14 -5.27748e-14 -4.49956e-14 -3.72165e-14 -2.94373e-14 -2.20712e-14 -1.46714e-14 -7.25557e-15 1.60256e-16 7.57608e-15