# vtk DataFile Version 2.0
tracks
ASCII
DATASET POLYDATA
POINTS 1720 float
-1.001 1e-07 0.0011 -1.0008 1e-07 0.0011 -1.0006 1e-07 0.0011 -1.0004 1e-07
0.0011 -1.0002 1e-07 0.0011 -1 1e-07 0.0011 -0.8 1e-07 0.0011
-0.6 1e-07 0.0011 -0.4 1e-07 0.0011 -0.2 1e-07 0.0011 0
1e-07 0.0011 0.2 1e-07 0.0011 0.4 1e-07 0.0011 0.6 1e-07
0.0011 0.8 1e-07 0.0011 1 1e-07 0.0011 1.2 1e-07 0.0011
1.4 1e-07 0.0011 1.6 1e-07 0.0011 1.8 1e-07 0.0011 2
1e-07 0.0011 2.2 1e-07 0.0011 2.4 1e-07 0.0011 2.6 1e-07
0.0011 2.8 1e-07 0.0011 3 1e-07 0.0011 3.2 1e-07 0.0011
3.4 1e-07 0.0011 3.6 1e-07 0.0011 3.8 1e-07 0.0011 4
1e-07 0.0011 4.2 1e-07 0.0011 4.4 1e-07 0.0011 4.6 1e-07
0.0011 4.8 1e-07 0.0011 5 1e-07 0.0011 5.2 1e-07 0.0011
5.4 1e-07 0.0011 5.6 1e-07 0.0011 5.8 1e-07 0.0011 6
1e-07 0.0011 6.2 1e-07 0.0011 6.4 1e-07 0.0011 6.6 1e-07
0.0011 6.8 1e-07 0.0011 7 1e-07 0.0011 7.2 1e-07 0.0011
7.4 1e-07 0.0011 7.6 1e-07 0.0011 7.8 1e-07 0.0011 8
1e-07 0.0011 8.2 1e-07 0.0011 8.4 1e-07 0.0011 8.6 1e-07
0.0011 8.8 1e-07 0.0011 9 1e-07 0.0011 9.2 1e-07 0.0011
9.4 1e-07 0.0011 9.6 1e-07 0.0011 9.8 1e-07 0.0011 10
1e-07 0.0011 10.2 1e-07 0.0011 10.4 1e-07 0.0011 10.6 1e-07
0.0011 10.8 1e-07 0.0011 11 1e-07 0.0011 11.2 1e-07 0.0011
11.4 1e-07 0.0011 11.6 1e-07 0.0011 11.8 1e-07 0.0011 12
1e-07 0.0011 12.2 1e-07 0.0011 12.4 1e-07 0.0011 12.6 1e-07
0.0011 12.8 1e-07 0.0011 13 1e-07 0.0011 13.2 1e-07 0.0011
13.4 1e-07 0.0011 13.6 1e-07 0.0011 13.8 1e-07 0.0011 14
1e-07 0.0011 14.2 1e-07 0.0011 14.4 1e-07 0.0011 14.6 1e-07
0.0011 14.8 1e-07 0.0011 15 1e-07 0.0011 -1.001 1e-07 0.0537316
-1.0008 1e-07 0.0537316 -1.0006 1e-07 0.0537316 -1.0004 1e-07 0.0537316 -1.0002
1e-07 0.0537316 -1 1e-07 0.0537316 -0.8 1e-07 0.0537316 -0.6 1e-07
0.0537316 -0.4 1e-07 0.0537316 -0.2 1e-07 0.0537316 0 1e-07 0.0537316
0.2 1e-07 0.0537316 0.4 1e-07 0.0537316 0.6 1e-07 0.0537316 0.8
1e-07 0.0537316 1 1e-07 0.0537316 1.2 1e-07 0.0537316 1.4 1e-07
0.0537316 1.6 1e-07 0.0537316 1.8 1e-07 0.0537316 2 1e-07 0.0537316
2.2 1e-07 0.0537316 2.4 1e-07 0.0537316 2.6 1e-07 0.0537316 2.8
1e-07 0.0537316 3 1e-07 0.0537316 3.2 1e-07 0.0537316 3.4 1e-07
0.0537316 3.6 1e-07 0.0537316 3.8 1e-07 0.0537316 4 1e-07 0.0537316
4.2 1e-07 0.0537316 4.4 1e-07 0.0537316 4.6 1e-07 0.0537316 4.8
1e-07 0.0537316 5 1e-07 0.0537316 5.2 1e-07 0.0537316 5.4 1e-07
0.0537316 5.6 1e-07 0.0537316 5.8 1e-07 0.0537316 6 1e-07 0.0537316
6.2 1e-07 0.0537316 6.4 1e-07 0.0537316 6.6 1e-07 0.0537316 6.8
1e-07 0.0537316 7 1e-07 0.0537316 7.2 1e-07 0.0537316 7.4 1e-07
0.0537316 7.6 1e-07 0.0537316 7.8 1e-07 0.0537316 8 1e-07 0.0537316
8.2 1e-07 0.0537316 8.4 1e-07 0.0537316 8.6 1e-07 0.0537316 8.8
1e-07 0.0537316 9 1e-07 0.0537316 9.2 1e-07 0.0537316 9.4 1e-07
0.0537316 9.6 1e-07 0.0537316 9.8 1e-07 0.0537316 10 1e-07 0.0537316
10.2 1e-07 0.0537316 10.4 1e-07 0.0537316 10.6 1e-07 0.0537316 10.8
1e-07 0.0537316 11 1e-07 0.0537316 11.2 1e-07 0.0537316 11.4 1e-07
0.0537316 11.6 1e-07 0.0537316 11.8 1e-07 0.0537316 12 1e-07 0.0537316
12.2 1e-07 0.0537316 12.4 1e-07 0.0537316 12.6 1e-07 0.0537316 12.8
1e-07 0.0537316 13 1e-07 0.0537316 13.2 1e-07 0.0537316 13.4 1e-07
0.0537316 13.6 1e-07 0.0537316 13.8 1e-07 0.0537316 14 1e-07 0.0537316
14.2 1e-07 0.0537316 14.4 1e-07 0.0537316 14.6 1e-07 0.0537316 14.8
1e-07 0.0537316 15 1e-07 0.0537316 -1.001 1e-07 0.106363 -1.0008 1e-07
0.106363 -1.0006 1e-07 0.106363 -1.0004 1e-07 0.106363 -1.0002 1e-07 0.106363
-1 1e-07 0.106363 -0.8 1e-07 0.106363 -0.6 1e-07 0.106363 -0.4
1e-07 0.106363 -0.2 1e-07 0.106363 0 1e-07 0.106363 0.2 1e-07
0.106363 0.4 1e-07 0.106363 0.6 1e-07 0.106363 0.8 1e-07 0.106363
1 1e-07 0.106363 1.2 1e-07 0.106363 1.4 1e-07 0.106363 1.6
1e-07 0.106363 1.8 1e-07 0.106363 2 1e-07 0.106363 2.2 1e-07
0.106363 2.4 1e-07 0.106363 2.6 1e-07 0.106363 2.8 1e-07 0.106363
3 1e-07 0.106363 3.2 1e-07 0.106363 3.4 1e-07 0.106363 3.6
1e-07 0.106363 3.8 1e-07 0.106363 4 1e-07 0.106363 4.2 1e-07
0.106363 4.4 1e-07 0.106363 4.6 1e-07 0.106363 4.8 1e-07 0.106363
5 1e-07 0.106363 5.2 1e-07 0.106363 5.4 1e-07 0.106363 5.6
1e-07 0.106363 5.8 1e-07 0.106363 6 1e-07 0.106363 6.2 1e-07
0.106363 6.4 1e-07 0.106363 6.6 1e-07 0.106363 6.8 1e-07 0.106363
7 1e-07 0.106363 7.2 1e-07 0.106363 7.4 1e-07 0.106363 7.6
1e-07 0.106363 7.8 1e-07 0.106363 8 1e-07 0.106363 8.2 1e-07
0.106363 8.4 1e-07 0.106363 8.6 1e-07 0.106363 8.8 1e-07 0.106363
9 1e-07 0.106363 9.2 1e-07 0.106363 9.4 1e-07 0.106363 9.6
1e-07 0.106363 9.8 1e-07 0.106363 10 1e-07 0.106363 10.2 1e-07
0.106363 10.4 1e-07 0.106363 10.6 1e-07 0.106363 10.8 1e-07 0.106363
11 1e-07 0.106363 11.2 1e-07 0.106363 11.4 1e-07 0.106363 11.6
1e-07 0.106363 11.8 1e-07 0.106363 12 1e-07 0.106363 12.2 1e-07
0.106363 12.4 1e-07 0.106363 12.6 1e-07 0.106363 12.8 1e-07 0.106363
13 1e-07 0.106363 13.2 1e-07 0.106363 13.4 1e-07 0.106363 13.6
1e-07 0.106363 13.8 1e-07 0.106363 14 1e-07 0.106363 14.2 1e-07
0.106363 14.4 1e-07 0.106363 14.6 1e-07 0.106363 14.8 1e-07 0.106363
15 1e-07 0.106363 -1.001 1e-07 0.158995 -1.0008 1e-07 0.158995 -1.0006
1e-07 0.158995 -1.0004 1e-07 0.158995 -1.0002 1e-07 0.158995 -1 1e-07
0.158995 -0.8 1e-07 0.158995 -0.6 1e-07 0.158995 -0.4 1e-07 0.158995
-0.2 1e-07 0.158995 0 1e-07 0.158995 0.2 1e-07 0.158995 0.4
1e-07 0.158995 0.6 1e-07 0.158995 0.8 1e-07 0.158995 1 1e-07
0.158995 1.2 1e-07 0.158995 1.4 1e-07 0.158995 1.6 1e-07 0.158995
1.8 1e-07 0.158995 2 1e-07 0.158995 2.2 1e-07 0.158995 2.4
1e-07 0.158995 2.6 1e-07 0.158995 2.8 1e-07 0.158995 3 1e-07
0.158995 3.2 1e-07 0.158995 3.4 1e-07 0.158995 3.6 1e-07 0.158995
3.8 1e-07 0.158995 4 1e-07 0.158995 4.2 1e-07 0.158995 4.4
1e-07 0.158995 4.6 1e-07 0.158995 4.8 1e-07 0.158995 5 1e-07
0.158995 5.2 1e-07 0.158995 5.4 1e-07 0.158995 5.6 1e-07 0.158995
5.8 1e-07 0.158995 6 1e-07 0.158995 6.2 1e-07 0.158995 6.4
1e-07 0.158995 6.6 1e-07 0.158995 6.8 1e-07 0.158995 7 1e-07
0.158995 7.2 1e-07 0.158995 7.4 1e-07 0.158995 7.6 1e-07 0.158995
7.8 1e-07 0.158995 8 1e-07 0.158995 8.2 1e-07 0.158995 8.4
1e-07 0.158995 8.6 1e-07 0.158995 8.8 1e-07 0.158995 9 1e-07
0.158995 9.2 1e-07 0.158995 9.4 1e-07 0.158995 9.6 1e-07 0.158995
9.8 1e-07 0.158995 10 1e-07 0.158995 10.2 1e-07 0.158995 10.4
1e-07 0.158995 10.6 1e-07 0.158995 10.8 1e-07 0.158995 11 1e-07
0.158995 11.2 1e-07 0.158995 11.4 1e-07 0.158995 11.6 1e-07 0.158995
11.8 1e-07 0.158995 12 1e-07 0.158995 12.2 1e-07 0.158995 12.4
1e-07 0.158995 12.6 1e-07 0.158995 12.8 1e-07 0.158995 13 1e-07
0.158995 13.2 1e-07 0.158995 13.4 1e-07 0.158995 13.6 1e-07 0.158995
13.8 1e-07 0.158995 14 1e-07 0.158995 14.2 1e-07 0.158995 14.4
1e-07 0.158995 14.6 1e-07 0.158995 14.8 1e-07 0.158995 15 1e-07
0.158995 -1.001 1e-07 0.211626 -1.0008 1e-07 0.211626 -1.0006 1e-07 0.211626
-1.0004 1e-07 0.211626 -1.0002 1e-07 0.211626 -1 1e-07 0.211626 -0.8
1e-07 0.211626 -0.6 1e-07 0.211626 -0.4 1e-07 0.211626 -0.2 1e-07
0.211626 0 1e-07 0.211626 0.2 1e-07 0.211626 0.4 1e-07 0.211626
0.6 1e-07 0.211626 0.8 1e-07 0.211626 1 1e-07 0.211626 1.2
1e-07 0.211626 1.4 1e-07 0.211626 1.6 1e-07 0.211626 1.8 1e-07
0.211626 2 1e-07 0.211626 2.2 1e-07 0.211626 2.4 1e-07 0.211626
2.6 1e-07 0.211626 2.8 1e-07 0.211626 3 1e-07 0.211626 3.2
1e-07 0.211626 3.4 1e-07 0.211626 3.6 1e-07 0.211626 3.8 1e-07
0.211626 4 1e-07 0.211626 4.2 1e-07 0.211626 4.4 1e-07 0.211626
4.6 1e-07 0.211626 4.8 1e-07 0.211626 5 1e-07 0.211626 5.2
1e-07 0.211626 5.4 1e-07 0.211626 5.6 1e-07 0.211626 5.8 1e-07
0.211626 6 1e-07 0.211626 6.2 1e-07 0.211626 6.4 1e-07 0.211626
6.6 1e-07 0.211626 6.8 1e-07 0.211626 7 1e-07 0.211626 7.2
1e-07 0.211626 7.4 1e-07 0.211626 7.6 1e-07 0.211626 7.8 1e-07
0.211626 8 1e-07 0.211626 8.2 1e-07 0.211626 8.4 1e-07 0.211626
8.6 1e-07 0.211626 8.8 1e-07 0.211626 9 1e-07 0.211626 9.2
1e-07 0.211626 9.4 1e-07 0.211626 9.6 1e-07 0.211626 9.8 1e-07
0.211626 10 1e-07 0.211626 10.2 1e-07 0.211626 10.4 1e-07 0.211626
10.6 1e-07 0.211626 10.8 1e-07 0.211626 11 1e-07 0.211626 11.2
1e-07 0.211626 11.4 1e-07 0.211626 11.6 1e-07 0.211626 11.8 1e-07
0.211626 12 1e-07 0.211626 12.2 1e-07 0.211626 12.4 1e-07 0.211626
12.6 1e-07 0.211626 12.8 1e-07 0.211626 13 1e-07 0.211626 13.2
1e-07 0.211626 13.4 1e-07 0.211626 13.6 1e-07 0.211626 13.8 1e-07
0.211626 14 1e-07 0.211626 14.2 1e-07 0.211626 14.4 1e-07 0.211626
14.6 1e-07 0.211626 14.8 1e-07 0.211626 15 1e-07 0.211626 -1.001
1e-07 0.264258 -1.0008 1e-07 0.264258 -1.0006 1e-07 0.264258 -1.0004 1e-07
0.264258 -1.0002 1e-07 0.264258 -1 1e-07 0.264258 -0.8 1e-07 0.264258
-0.6 1e-07 0.264258 -0.4 1e-07 0.264258 -0.2 1e-07 0.264258 0
1e-07 0.264258 0.2 1e-07 0.264258 0.4 1e-07 0.264258 0.6 1e-07
0.264258 0.8 1e-07 0.264258 1 1e-07 0.264258 1.2 1e-07 0.264258
1.4 1e-07 0.264258 1.6 1e-07 0.264258 1.8 1e-07 0.264258 2
1e-07 0.264258 2.2 1e-07 0.264258 2.4 1e-07 0.264258 2.6 1e-07
0.264258 2.8 1e-07 0.264258 3 1e-07 0.264258 3.2 1e-07 0.264258
3.4 1e-07 0.264258 3.6 1e-07 0.264258 3.8 1e-07 0.264258 4
1e-07 0.264258 4.2 1e-07 0.264258 4.4 1e-07 0.264258 4.6 1e-07
0.264258 4.8 1e-07 0.264258 5 1e-07 0.264258 5.2 1e-07 0.264258
5.4 1e-07 0.264258 5.6 1e-07 0.264258 5.8 1e-07 0.264258 6
1e-07 0.264258 6.2 1e-07 0.264258 6.4 1e-07 0.264258 6.6 1e-07
0.264258 6.8 1e-07 0.264258 7 1e-07 0.264258 7.2 1e-07 0.264258
7.4 1e-07 0.264258 7.6 1e-07 0.264258 7.8 1e-07 0.264258 8
1e-07 0.264258 8.2 1e-07 0.264258 8.4 1e-07 0.264258 8.6 1e-07
0.264258 8.8 1e-07 0.264258 9 1e-07 0.264258 9.2 1e-07 0.264258
9.4 1e-07 0.264258 9.6 1e-07 0.264258 9.8 1e-07 0.264258 10
1e-07 0.264258 10.2 1e-07 0.264258 10.4 1e-07 0.264258 10.6 1e-07
0.264258 10.8 1e-07 0.264258 11 1e-07 0.264258 11.2 1e-07 0.264258
11.4 1e-07 0.264258 11.6 1e-07 0.264258 11.8 1e-07 0.264258 12
1e-07 0.264258 12.2 1e-07 0.264258 12.4 1e-07 0.264258 12.6 1e-07
0.264258 12.8 1e-07 0.264258 13 1e-07 0.264258 13.2 1e-07 0.264258
13.4 1e-07 0.264258 13.6 1e-07 0.264258 13.8 1e-07 0.264258 14
1e-07 0.264258 14.2 1e-07 0.264258 14.4 1e-07 0.264258 14.6 1e-07
0.264258 14.8 1e-07 0.264258 15 1e-07 0.264258 -1.001 1e-07 0.316889
-1.0008 1e-07 0.316889 -1.0006 1e-07 0.316889 -1.0004 1e-07 0.316889 -1.0002
[...]
POINT_DATA 1720
FIELD attributes 3
age 1 1720 float
0 1e-05 2e-05 3e-05 4e-05 5e-05 0.01005 0.02005 0.03005 0.04005 0.05005
0.06005 0.07005 0.08005 0.09005 0.10005 0.11005 0.12005 0.13005 0.14005 0.15005
0.16005 0.17005 0.18005 0.19005 0.20005 0.21005 0.22005 0.23005 0.24005 0.25005
0.26005 0.27005 0.28005 0.29005 0.30005 0.31005 0.32005 0.33005 0.34005 0.35005
0.36005 0.37005 0.38005 0.39005 0.40005 0.41005 0.42005 0.43005 0.44005 0.45005
0.46005 0.47005 0.48005 0.49005 0.50005 0.51005 0.52005 0.53005 0.54005 0.55005
0.56005 0.57005 0.58005 0.59005 0.60005 0.61005 0.62005 0.63005 0.64005 0.65005
0.66005 0.67005 0.68005 0.69005 0.70005 0.71005 0.72005 0.73005 0.74005 0.75005
0.76005 0.77005 0.78005 0.79005 0.80005 0 1e-05 2e-05 3e-05 4e-05
5e-05 0.01005 0.02005 0.03005 0.04005 0.05005 0.06005 0.07005 0.08005 0.09005
0.10005 0.11005 0.12005 0.13005 0.14005 0.15005 0.16005 0.17005 0.18005 0.19005
0.20005 0.21005 0.22005 0.23005 0.24005 0.25005 0.26005 0.27005 0.28005 0.29005
0.30005 0.31005 0.32005 0.33005 0.34005 0.35005 0.36005 0.37005 0.38005 0.39005
0.40005 0.41005 0.42005 0.43005 0.44005 0.45005 0.46005 0.47005 0.48005 0.49005
0.50005 0.51005 0.52005 0.53005 0.54005 0.55005 0.56005 0.57005 0.58005 0.59005
0.60005 0.61005 0.62005 0.63005 0.64005 0.65005 0.66005 0.67005 0.68005 0.69005
0.70005 0.71005 0.72005 0.73005 0.74005 0.75005 0.76005 0.77005 0.78005 0.79005
0.80005 0 1e-05 2e-05 3e-05 4e-05 5e-05 0.01005 0.02005 0.03005
0.04005 0.05005 0.06005 0.07005 0.08005 0.09005 0.10005 0.11005 0.12005 0.13005
0.14005 0.15005 0.16005 0.17005 0.18005 0.19005 0.20005 0.21005 0.22005 0.23005
0.24005 0.25005 0.26005 0.27005 0.28005 0.29005 0.30005 0.31005 0.32005 0.33005
0.34005 0.35005 0.36005 0.37005 0.38005 0.39005 0.40005 0.41005 0.42005 0.43005
0.44005 0.45005 0.46005 0.47005 0.48005 0.49005 0.50005 0.51005 0.52005 0.53005
0.54005 0.55005 0.56005 0.57005 0.58005 0.59005 0.60005 0.61005 0.62005 0.63005
0.64005 0.65005 0.66005 0.67005 0.68005 0.69005 0.70005 0.71005 0.72005 0.73005
0.74005 0.75005 0.76005 0.77005 0.78005 0.79005 0.80005 0 1e-05 2e-05
3e-05 4e-05 5e-05 0.01005 0.02005 0.03005 0.04005 0.05005 0.06005 0.07005
0.08005 0.09005 0.10005 0.11005 0.12005 0.13005 0.14005 0.15005 0.16005 0.17005
0.18005 0.19005 0.20005 0.21005 0.22005 0.23005 0.24005 0.25005 0.26005 0.27005
0.28005 0.29005 0.30005 0.31005 0.32005 0.33005 0.34005 0.35005 0.36005 0.37005
0.38005 0.39005 0.40005 0.41005 0.42005 0.43005 0.44005 0.45005 0.46005 0.47005
0.48005 0.49005 0.50005 0.51005 0.52005 0.53005 0.54005 0.55005 0.56005 0.57005
0.58005 0.59005 0.60005 0.61005 0.62005 0.63005 0.64005 0.65005 0.66005 0.67005
0.68005 0.69005 0.70005 0.71005 0.72005 0.73005 0.74005 0.75005 0.76005 0.77005
0.78005 0.79005 0.80005 0 1e-05 2e-05 3e-05 4e-05 5e-05 0.01005
0.02005 0.03005 0.04005 0.05005 0.06005 0.07005 0.08005 0.09005 0.10005 0.11005
0.12005 0.13005 0.14005 0.15005 0.16005 0.17005 0.18005 0.19005 0.20005 0.21005
0.22005 0.23005 0.24005 0.25005 0.26005 0.27005 0.28005 0.29005 0.30005 0.31005
0.32005 0.33005 0.34005 0.35005 0.36005 0.37005 0.38005 0.39005 0.40005 0.41005
0.42005 0.43005 0.44005 0.45005 0.46005 0.47005 0.48005 0.49005 0.50005 0.51005
0.52005 0.53005 0.54005 0.55005 0.56005 0.57005 0.58005 0.59005 0.60005 0.61005
0.62005 0.63005 0.64005 0.65005 0.66005 0.67005 0.68005 0.69005 0.70005 0.71005
0.72005 0.73005 0.74005 0.75005 0.76005 0.77005 0.78005 0.79005 0.80005 0
1e-05 2e-05 3e-05 4e-05 5e-05 0.01005 0.02005 0.03005 0.04005 0.05005
0.06005 0.07005 0.08005 0.09005 0.10005 0.11005 0.12005 0.13005 0.14005 0.15005
0.16005 0.17005 0.18005 0.19005 0.20005 0.21005 0.22005 0.23005 0.24005 0.25005
0.26005 0.27005 0.28005 0.29005 0.30005 0.31005 0.32005 0.33005 0.34005 0.35005
0.36005 0.37005 0.38005 0.39005 0.40005 0.41005 0.42005 0.43005 0.44005 0.45005
0.46005 0.47005 0.48005 0.49005 0.50005 0.51005 0.52005 0.53005 0.54005 0.55005
0.56005 0.57005 0.58005 0.59005 0.60005 0.61005 0.62005 0.63005 0.64005 0.65005
0.66005 0.67005 0.68005 0.69005 0.70005 0.71005 0.72005 0.73005 0.74005 0.75005
0.76005 0.77005 0.78005 0.79005 0.80005 0 1e-05 2e-05 3e-05 4e-05
5e-05 0.01005 0.02005 0.03005 0.04005 0.05005 0.06005 0.07005 0.08005 0.09005
0.10005 0.11005 0.12005 0.13005 0.14005 0.15005 0.16005 0.17005 0.18005 0.19005
0.20005 0.21005 0.22005 0.23005 0.24005 0.25005 0.26005 0.27005 0.28005 0.29005
0.30005 0.31005 0.32005 0.33005 0.34005 0.35005 0.36005 0.37005 0.38005 0.39005
0.40005 0.41005 0.42005 0.43005 0.44005 0.45005 0.46005 0.47005 0.48005 0.49005
0.50005 0.51005 0.52005 0.53005 0.54005 0.55005 0.56005 0.57005 0.58005 0.59005
0.60005 0.61005 0.62005 0.63005 0.64005 0.65005 0.66005 0.67005 0.68005 0.69005
0.70005 0.71005 0.72005 0.73005 0.74005 0.75005 0.76005 0.77005 0.78005 0.79005
0.80005 0 1e-05 2e-05 3e-05 4e-05 5e-05 0.01005 0.02005 0.03005
0.04005 0.05005 0.06005 0.07005 0.08005 0.09005 0.10005 0.11005 0.12005 0.13005
0.14005 0.15005 0.16005 0.17005 0.18005 0.19005 0.20005 0.21005 0.22005 0.23005
0.24005 0.25005 0.26005 0.27005 0.28005 0.29005 0.30005 0.31005 0.32005 0.33005
0.34005 0.35005 0.36005 0.37005 0.38005 0.39005 0.40005 0.41005 0.42005 0.43005
0.44005 0.45005 0.46005 0.47005 0.48005 0.49005 0.50005 0.51005 0.52005 0.53005
0.54005 0.55005 0.56005 0.57005 0.58005 0.59005 0.60005 0.61005 0.62005 0.63005
0.64005 0.65005 0.66005 0.67005 0.68005 0.69005 0.70005 0.71005 0.72005 0.73005
0.74005 0.75005 0.76005 0.77005 0.78005 0.79005 0.80005 0 1e-05 2e-05
3e-05 4e-05 5e-05 0.01005 0.02005 0.03005 0.04005 0.05005 0.06005 0.07005
0.08005 0.09005 0.10005 0.11005 0.12005 0.13005 0.14005 0.15005 0.16005 0.17005
0.18005 0.19005 0.20005 0.21005 0.22005 0.23005 0.24005 0.25005 0.26005 0.27005
0.28005 0.29005 0.30005 0.31005 0.32005 0.33005 0.34005 0.35005 0.36005 0.37005
0.38005 0.39005 0.40005 0.41005 0.42005 0.43005 0.44005 0.45005 0.46005 0.47005
0.48005 0.49005 0.50005 0.51005 0.52005 0.53005 0.54005 0.55005 0.56005 0.57005
0.58005 0.59005 0.60005 0.61005 0.62005 0.63005 0.64005 0.65005 0.66005 0.67005
0.68005 0.69005 0.70005 0.71005 0.72005 0.73005 0.74005 0.75005 0.76005 0.77005
0.78005 0.79005 0.80005 0 1e-05 2e-05 3e-05 4e-05 5e-05 0.01005
0.02005 0.03005 0.04005 0.05005 0.06005 0.07005 0.08005 0.09005 0.10005 0.11005
0.12005 0.13005 0.14005 0.15005 0.16005 0.17005 0.18005 0.19005 0.20005 0.21005
0.22005 0.23005 0.24005 0.25005 0.26005 0.27005 0.28005 0.29005 0.30005 0.31005
0.32005 0.33005 0.34005 0.35005 0.36005 0.37005 0.38005 0.39005 0.40005 0.41005
0.42005 0.43005 0.44005 0.45005 0.46005 0.47005 0.48005 0.49005 0.50005 0.51005
0.52005 0.53005 0.54005 0.55005 0.56005 0.57005 0.58005 0.59005 0.60005 0.61005
0.62005 0.63005 0.64005 0.65005 0.66005 0.67005 0.68005 0.69005 0.70005 0.71005
0.72005 0.73005 0.74005 0.75005 0.76005 0.77005 0.78005 0.79005 0.80005 0
1e-05 2e-05 3e-05 4e-05 5e-05 0.01005 0.02005 0.03005 0.04005 0.05005
0.06005 0.07005 0.08005 0.09005 0.10005 0.11005 0.12005 0.13005 0.14005 0.15005
0.16005 0.17005 0.18005 0.19005 0.20005 0.21005 0.22005 0.23005 0.24005 0.25005
0.26005 0.27005 0.28005 0.29005 0.30005 0.31005 0.32005 0.33005 0.34005 0.35005
0.36005 0.37005 0.38005 0.39005 0.40005 0.41005 0.42005 0.43005 0.44005 0.45005
0.46005 0.47005 0.48005 0.49005 0.50005 0.51005 0.52005 0.53005 0.54005 0.55005
0.56005 0.57005 0.58005 0.59005 0.60005 0.61005 0.62005 0.63005 0.64005 0.65005
0.66005 0.67005 0.68005 0.69005 0.70005 0.71005 0.72005 0.73005 0.74005 0.75005
0.76005 0.77005 0.78005 0.79005 0.80005 0 1e-05 2e-05 3e-05 4e-05
5e-05 0.01005 0.02005 0.03005 0.04005 0.05005 0.06005 0.07005 0.08005 0.09005
0.10005 0.11005 0.12005 0.13005 0.14005 0.15005 0.16005 0.17005 0.18005 0.19005
0.20005 0.21005 0.22005 0.23005 0.24005 0.25005 0.26005 0.27005 0.28005 0.29005
0.30005 0.31005 0.32005 0.33005 0.34005 0.35005 0.36005 0.37005 0.38005 0.39005
0.40005 0.41005 0.42005 0.43005 0.44005 0.45005 0.46005 0.47005 0.48005 0.49005
0.50005 0.51005 0.52005 0.53005 0.54005 0.55005 0.56005 0.57005 0.58005 0.59005
0.60005 0.61005 0.62005 0.63005 0.64005 0.65005 0.66005 0.67005 0.68005 0.69005
0.70005 0.71005 0.72005 0.73005 0.74005 0.75005 0.76005 0.77005 0.78005 0.79005
0.80005 0 1e-05 2e-05 3e-05 4e-05 5e-05 0.01005 0.02005 0.03005
0.04005 0.05005 0.06005 0.07005 0.08005 0.09005 0.10005 0.11005 0.12005 0.13005
0.14005 0.15005 0.16005 0.17005 0.18005 0.19005 0.20005 0.21005 0.22005 0.23005
0.24005 0.25005 0.26005 0.27005 0.28005 0.29005 0.30005 0.31005 0.32005 0.33005
0.34005 0.35005 0.36005 0.37005 0.38005 0.39005 0.40005 0.41005 0.42005 0.43005
0.44005 0.45005 0.46005 0.47005 0.48005 0.49005 0.50005 0.51005 0.52005 0.53005
0.54005 0.55005 0.56005 0.57005 0.58005 0.59005 0.60005 0.61005 0.62005 0.63005
0.64005 0.65005 0.66005 0.67005 0.68005 0.69005 0.70005 0.71005 0.72005 0.73005
0.74005 0.75005 0.76005 0.77005 0.78005 0.79005 0.80005 0 1e-05 2e-05
3e-05 4e-05 5e-05 0.01005 0.02005 0.03005 0.04005 0.05005 0.06005 0.07005
0.08005 0.09005 0.10005 0.11005 0.12005 0.13005 0.14005 0.15005 0.16005 0.17005
0.18005 0.19005 0.20005 0.21005 0.22005 0.23005 0.24005 0.25005 0.26005 0.27005
0.28005 0.29005 0.30005 0.31005 0.32005 0.33005 0.34005 0.35005 0.36005 0.37005
0.38005 0.39005 0.40005 0.41005 0.42005 0.43005 0.44005 0.45005 0.46005 0.47005
0.48005 0.49005 0.50005 0.51005 0.52005 0.53005 0.54005 0.55005 0.56005 0.57005
0.58005 0.59005 0.60005 0.61005 0.62005 0.63005 0.64005 0.65005 0.66005 0.67005
0.68005 0.69005 0.70005 0.71005 0.72005 0.73005 0.74005 0.75005 0.76005 0.77005
0.78005 0.79005 0.80005 0 1e-05 2e-05 3e-05 4e-05 5e-05 0.01005
0.02005 0.03005 0.04005 0.05005 0.06005 0.07005 0.08005 0.09005 0.10005 0.11005
0.12005 0.13005 0.14005 0.15005 0.16005 0.17005 0.18005 0.19005 0.20005 0.21005
0.22005 0.23005 0.24005 0.25005 0.26005 0.27005 0.28005 0.29005 0.30005 0.31005
0.32005 0.33005 0.34005 0.35005 0.36005 0.37005 0.38005 0.39005 0.40005 0.41005
0.42005 0.43005 0.44005 0.45005 0.46005 0.47005 0.48005 0.49005 0.50005 0.51005
0.52005 0.53005 0.54005 0.55005 0.56005 0.57005 0.58005 0.59005 0.60005 0.61005
0.62005 0.63005 0.64005 0.65005 0.66005 0.67005 0.68005 0.69005 0.70005 0.71005
0.72005 0.73005 0.74005 0.75005 0.76005 0.77005 0.78005 0.79005 0.80005 0
1e-05 2e-05 3e-05 4e-05 5e-05 0.01005 0.02005 0.03005 0.04005 0.05005
0.06005 0.07005 0.08005 0.09005 0.10005 0.11005 0.12005 0.13005 0.14005 0.15005
0.16005 0.17005 0.18005 0.19005 0.20005 0.21005 0.22005 0.23005 0.24005 0.25005
0.26005 0.27005 0.28005 0.29005 0.30005 0.31005 0.32005 0.33005 0.34005 0.35005
0.36005 0.37005 0.38005 0.39005 0.40005 0.41005 0.42005 0.43005 0.44005 0.45005
0.46005 0.47005 0.48005 0.49005 0.50005 0.51005 0.52005 0.53005 0.54005 0.55005
0.56005 0.57005 0.58005 0.59005 0.60005 0.61005 0.62005 0.63005 0.64005 0.65005
0.66005 0.67005 0.68005 0.69005 0.70005 0.71005 0.72005 0.73005 0.74005 0.75005
0.76005 0.77005 0.78005 0.79005 0.80005 0 1e-05 2e-05 3e-05 4e-05
5e-05 0.01005 0.02005 0.03005 0.04005 0.05005 0.06005 0.07005 0.08005 0.09005
0.10005 0.11005 0.12005 0.13005 0.14005 0.15005 0.16005 0.17005 0.18005 0.19005
0.20005 0.21005 0.22005 0.23005 0.24005 0.25005 0.26005 0.27005 0.28005 0.29005
0.30005 0.31005 0.32005 0.33005 0.34005 0.35005 0.36005 0.37005 0.38005 0.39005
0.40005 0.41005 0.42005 0.43005 0.44005 0.45005 0.46005 0.47005 0.48005 0.49005
0.50005 0.51005 0.52005 0.53005 0.54005 0.55005 0.56005 0.57005 0.58005 0.59005
0.60005 0.61005 0.62005 0.63005 0.64005 0.65005 0.66005 0.67005 0.68005 0.69005
0.70005 0.71005 0.72005 0.73005 0.74005 0.75005 0.76005 0.77005 0.78005 0.79005
0.80005 0 1e-05 2e-05 3e-05 4e-05 5e-05 0.01005 0.02005 0.03005
0.04005 0.05005 0.06005 0.07005 0.08005 0.09005 0.10005 0.11005 0.12005 0.13005
0.14005 0.15005 0.16005 0.17005 0.18005 0.19005 0.20005 0.21005 0.22005 0.23005
0.24005 0.25005 0.26005 0.27005 0.28005 0.29005 0.30005 0.31005 0.32005 0.33005
0.34005 0.35005 0.36005 0.37005 0.38005 0.39005 0.40005 0.41005 0.42005 0.43005
0.44005 0.45005 0.46005 0.47005 0.48005 0.49005 0.50005 0.51005 0.52005 0.53005
0.54005 0.55005 0.56005 0.57005 0.58005 0.59005 0.60005 0.61005 0.62005 0.63005
0.64005 0.65005 0.66005 0.67005 0.68005 0.69005 0.70005 0.71005 0.72005 0.73005
0.74005 0.75005 0.76005 0.77005 0.78005 0.79005 0.80005 0 1e-05 2e-05
3e-05 4e-05 5e-05 0.01005 0.02005 0.03005 0.04005 0.05005 0.06005 0.07005
0.08005 0.09005 0.10005 0.11005 0.12005 0.13005 0.14005 0.15005 0.16005 0.17005
0.18005 0.19005 0.20005 0.21005 0.22005 0.23005 0.24005 0.25005 0.26005 0.27005
0.28005 0.29005 0.30005 0.31005 0.32005 0.33005 0.34005 0.35005 0.36005 0.37005
0.38005 0.39005 0.40005 0.41005 0.42005 0.43005 0.44005 0.45005 0.46005 0.47005
0.48005 0.49005 0.50005 0.51005 0.52005 0.53005 0.54005 0.55005 0.56005 0.57005
0.58005 0.59005 0.60005 0.61005 0.62005 0.63005 0.64005 0.65005 0.66005 0.67005
0.68005 0.69005 0.70005 0.71005 0.72005 0.73005 0.74005 0.75005 0.76005 0.77005
0.78005 0.79005 0.80005 0 1e-05 2e-05 3e-05 4e-05 5e-05 0.01005
0.02005 0.03005 0.04005 0.05005 0.06005 0.07005 0.08005 0.09005 0.10005 0.11005
0.12005 0.13005 0.14005 0.15005 0.16005 0.17005 0.18005 0.19005 0.20005 0.21005
0.22005 0.23005 0.24005 0.25005 0.26005 0.27005 0.28005 0.29005 0.30005 0.31005
0.32005 0.33005 0.34005 0.35005 0.36005 0.37005 0.38005 0.39005 0.40005 0.41005
0.42005 0.43005 0.44005 0.45005 0.46005 0.47005 0.48005 0.49005 0.50005 0.51005
0.52005 0.53005 0.54005 0.55005 0.56005 0.57005 0.58005 0.59005 0.60005 0.61005
0.62005 0.63005 0.64005 0.65005 0.66005 0.67005 0.68005 0.69005 0.70005 0.71005
0.72005 0.73005 0.74005 0.75005 0.76005 0.77005 0.78005 0.79005 0.80005 
p 1 1720 float
-2.73953e-13 -2.73958e-13 -2.73962e-13 -2.73967e-13 -2.73972e-13 -2.73976e-13 -2.7265e-13 -2.71345e-13 -2.7004e-13 -2.68735e-13 -2.6743e-13
-2.59548e-13 -2.51645e-13 -2.43742e-13 -2.35839e-13 -2.27935e-13 -2.25092e-13 -2.2222e-13 -2.19348e-13 -2.16476e-13 -2.13603e-13
-2.17259e-13 -2.20939e-13 -2.24619e-13 -2.28299e-13 -2.31979e-13 -2.27893e-13 -2.23823e-13 -2.19754e-13 -2.15684e-13 -2.11615e-13
-2.04202e-13 -1.96776e-13 -1.89349e-13 -1.81922e-13 -1.74495e-13 -1.69753e-13 -1.64997e-13 -1.60242e-13 -1.55486e-13 -1.5073e-13
-1.49109e-13 -1.47492e-13 -1.45875e-13 -1.44258e-13 -1.42641e-13 -1.42595e-13 -1.42564e-13 -1.42533e-13 -1.42502e-13 -1.4247e-13
-1.3755e-13 -1.32626e-13 -1.27703e-13 -1.22779e-13 -1.17856e-13 -1.17404e-13 -1.16958e-13 -1.16512e-13 -1.16067e-13 -1.15621e-13
-1.20722e-13 -1.2583e-13 -1.30938e-13 -1.36046e-13 -1.41154e-13 -1.37416e-13 -1.33661e-13 -1.29906e-13 -1.26151e-13 -1.22396e-13
-1.05872e-13 -8.93241e-14 -7.27763e-14 -5.62284e-14 -3.96806e-14 -2.96048e-14 -1.9535e-14 -9.46528e-15 6.04481e-16 1.06742e-14
8.67182e-15 6.64853e-15 4.62523e-15 2.60193e-15 5.78637e-16 -2.73837e-13 -2.73842e-13 -2.73846e-13 -2.73851e-13 -2.73856e-13
-2.7386e-13 -2.71532e-13 -2.70226e-13 -2.68921e-13 -2.67616e-13 -2.66311e-13 -2.5947e-13 -2.51567e-13 -2.43664e-13 -2.3576e-13
-2.27857e-13 -2.2641e-13 -2.23538e-13 -2.20665e-13 -2.17793e-13 -2.14921e-13 -2.17425e-13 -2.21105e-13 -2.24784e-13 -2.28464e-13
-2.32144e-13 -2.27261e-13 -2.23192e-13 -2.19122e-13 -2.15053e-13 -2.10984e-13 -2.04263e-13 -1.96836e-13 -1.89409e-13 -1.81982e-13
-1.74555e-13 -1.70465e-13 -1.65709e-13 -1.60954e-13 -1.56198e-13 -1.51442e-13 -1.49605e-13 -1.47988e-13 -1.46371e-13 -1.44754e-13
-1.43137e-13 -1.42419e-13 -1.42388e-13 -1.42357e-13 -1.42325e-13 -1.42294e-13 -1.37517e-13 -1.32593e-13 -1.2767e-13 -1.22746e-13
-1.17823e-13 -1.17077e-13 -1.16631e-13 -1.16185e-13 -1.1574e-13 -1.15294e-13 -1.20057e-13 -1.25165e-13 -1.30273e-13 -1.35381e-13
-1.40489e-13 -1.37592e-13 -1.33837e-13 -1.30082e-13 -1.26327e-13 -1.22572e-13 -1.0719e-13 -9.06423e-14 -7.40945e-14 -5.75466e-14
-4.09988e-14 -3.06346e-14 -2.05648e-14 -1.04951e-14 -4.25315e-16 9.64444e-15 8.64134e-15 6.61804e-15 4.59474e-15 2.57144e-15
5.48149e-16 -2.73721e-13 -2.73726e-13 -2.7373e-13 -2.73735e-13 -2.7374e-13 -2.73744e-13 -2.70413e-13 -2.69108e-13 -2.67803e-13
-2.66498e-13 -2.65193e-13 -2.59392e-13 -2.51489e-13 -2.43585e-13 -2.35682e-13 -2.27779e-13 -2.27727e-13 -2.24855e-13 -2.21983e-13
-2.19111e-13 -2.16239e-13 -2.1759e-13 -2.2127e-13 -2.2495e-13 -2.2863e-13 -2.3231e-13 -2.2663e-13 -2.22561e-13 -2.18491e-13
-2.14422e-13 -2.10352e-13 -2.04323e-13 -1.96896e-13 -1.89469e-13 -1.82042e-13 -1.74615e-13 -1.71177e-13 -1.66422e-13 -1.61666e-13
-1.5691e-13 -1.52155e-13 -1.50102e-13 -1.48485e-13 -1.46868e-13 -1.45251e-13 -1.43634e-13 -1.42243e-13 -1.42212e-13 -1.42181e-13
-1.42149e-13 -1.42118e-13 -1.37484e-13 -1.3256e-13 -1.27636e-13 -1.22713e-13 -1.17789e-13 -1.1675e-13 -1.16304e-13 -1.15859e-13
-1.15413e-13 -1.14967e-13 -1.19392e-13 -1.245e-13 -1.29608e-13 -1.34716e-13 -1.39824e-13 -1.37769e-13 -1.34014e-13 -1.30259e-13
-1.26504e-13 -1.22749e-13 -1.08508e-13 -9.19605e-14 -7.54127e-14 -5.88648e-14 -4.2317e-14 -3.16644e-14 -2.15946e-14 -1.15249e-14
-1.45511e-15 8.61464e-15 8.61085e-15 6.58755e-15 4.56425e-15 2.54096e-15 5.17661e-16 -2.73605e-13 -2.7361e-13 -2.73615e-13
-2.73619e-13 -2.73624e-13 -2.73629e-13 -2.69294e-13 -2.67989e-13 -2.66684e-13 -2.65379e-13 -2.64074e-13 -2.59314e-13 -2.5141e-13
-2.43507e-13 -2.35604e-13 -2.27701e-13 -2.29045e-13 -2.26173e-13 -2.23301e-13 -2.20428e-13 -2.17556e-13 -2.17755e-13 -2.21435e-13
-2.25115e-13 -2.28795e-13 -2.32475e-13 -2.25999e-13 -2.21929e-13 -2.1786e-13 -2.1379e-13 -2.09721e-13 -2.04383e-13 -1.96956e-13
-1.89529e-13 -1.82102e-13 -1.74675e-13 -1.71889e-13 -1.67134e-13 -1.62378e-13 -1.57622e-13 -1.52867e-13 -1.50598e-13 -1.48981e-13
-1.47364e-13 -1.45747e-13 -1.4413e-13 -1.42067e-13 -1.42036e-13 -1.42004e-13 -1.41973e-13 -1.41942e-13 -1.3745e-13 -1.32527e-13
-1.27603e-13 -1.2268e-13 -1.17756e-13 -1.16423e-13 -1.15977e-13 -1.15532e-13 -1.15086e-13 -1.1464e-13 -1.18727e-13 -1.23835e-13
-1.28943e-13 -1.34051e-13 -1.39159e-13 -1.37945e-13 -1.3419e-13 -1.30435e-13 -1.2668e-13 -1.22925e-13 -1.09827e-13 -9.32787e-14
-7.67309e-14 -6.0183e-14 -4.36352e-14 -3.26942e-14 -2.26244e-14 -1.25547e-14 -2.48491e-15 7.58485e-15 8.58036e-15 6.55706e-15
4.53376e-15 2.51047e-15 4.87173e-16 -2.73489e-13 -2.73494e-13 -2.73499e-13 -2.73503e-13 -2.73508e-13 -2.73513e-13 -2.68397e-13
-2.66871e-13 -2.65566e-13 -2.6426e-13 -2.62955e-13 -2.59006e-13 -2.51332e-13 -2.43429e-13 -2.35526e-13 -2.27622e-13 -2.30054e-13
-2.2749e-13 -2.24618e-13 -2.21746e-13 -2.18874e-13 -2.18175e-13 -2.21601e-13 -2.25281e-13 -2.28961e-13 -2.3264e-13 -2.25544e-13
-2.21298e-13 -2.17229e-13 -2.13159e-13 -2.0909e-13 -2.0429e-13 -1.97016e-13 -1.89589e-13 -1.82162e-13 -1.74735e-13 -1.72457e-13
-1.67846e-13 -1.6309e-13 -1.58335e-13 -1.53579e-13 -1.51142e-13 -1.49478e-13 -1.47861e-13 -1.46244e-13 -1.44627e-13 -1.42039e-13
-1.4186e-13 -1.41828e-13 -1.41797e-13 -1.41766e-13 -1.37386e-13 -1.32494e-13 -1.2757e-13 -1.22647e-13 -1.17723e-13 -1.16161e-13
-1.1565e-13 -1.15205e-13 -1.14759e-13 -1.14313e-13 -1.18137e-13 -1.2317e-13 -1.28278e-13 -1.33386e-13 -1.38494e-13 -1.37936e-13
-1.34366e-13 -1.30611e-13 -1.26856e-13 -1.23101e-13 -1.10893e-13 -9.45969e-14 -7.80491e-14 -6.15012e-14 -4.49534e-14 -3.37877e-14
-2.36542e-14 -1.35845e-14 -3.5147e-15 6.55505e-15 8.32912e-15 6.52657e-15 4.50328e-15 2.47998e-15 4.56685e-16 -2.73373e-13
-2.73378e-13 -2.73383e-13 -2.73387e-13 -2.73392e-13 -2.73397e-13 -2.68281e-13 -2.65752e-13 -2.64447e-13 -2.63142e-13 -2.61837e-13
-2.57887e-13 -2.51254e-13 -2.43351e-13 -2.35447e-13 -2.27544e-13 -2.29976e-13 -2.28808e-13 -2.25936e-13 -2.23064e-13 -2.20191e-13
-2.19493e-13 -2.21766e-13 -2.25446e-13 -2.29126e-13 -2.32806e-13 -2.25709e-13 -2.20667e-13 -2.16597e-13 -2.12528e-13 -2.08458e-13
-2.03659e-13 -1.97076e-13 -1.89649e-13 -1.82222e-13 -1.74796e-13 -1.72518e-13 -1.68558e-13 -1.63802e-13 -1.59047e-13 -1.54291e-13
-1.51854e-13 -1.49974e-13 -1.48357e-13 -1.4674e-13 -1.45123e-13 -1.42536e-13 -1.41684e-13 -1.41652e-13 -1.41621e-13 -1.4159e-13
-1.3721e-13 -1.32461e-13 -1.27537e-13 -1.22614e-13 -1.1769e-13 -1.16128e-13 -1.15324e-13 -1.14878e-13 -1.14432e-13 -1.13986e-13
-1.1781e-13 -1.22505e-13 -1.27613e-13 -1.32721e-13 -1.37829e-13 -1.37271e-13 -1.34543e-13 -1.30788e-13 -1.27032e-13 -1.23277e-13